29
0 1 str:0 energy:-0.0501317 a.u.
 C  -1.283535  0.372786 -0.597479 
 C  -2.610054  0.739675 -0.354231 
 C  -0.863001 -0.912194 -0.249481 
 C  -3.494222 -0.166594  0.225234 
 C  -1.746751 -1.824935  0.323588 
 C  -3.065901 -1.449529  0.564292 
 C  -0.339307  1.351117 -1.224939 
 C   0.432472  2.144396 -0.156641 
 C   1.700959  1.438213  0.332178 
 C   1.410986  0.180224  1.177768 
 N   1.512643 -1.060342  0.400128 
 C   2.879608 -1.462243  0.032074 
 C   0.525236 -1.362702 -0.540064 
 O   0.795150 -2.053801 -1.501096 
 H  -2.953938  1.735921 -0.623597 
 H  -4.526631  0.126634  0.408886 
 H  -1.402958 -2.829737  0.572026 
 H  -3.761286 -2.158165  1.008608 
 H   0.365180  0.833047 -1.910118 
 H  -0.895758  2.056381 -1.877515 
 H  -0.233118  2.367828  0.699273 
 H   0.715176  3.130116 -0.578658 
 H   2.338054  1.169409 -0.533752 
 H   2.306117  2.147204  0.928324 
 H   2.124666  0.115582  2.030263 
 H   0.397271  0.236221  1.636713 
 H   3.584275 -1.223566  0.841716 
 H   2.899336 -2.556778 -0.134643 
 H   3.221079 -0.982640 -0.900875 
29
0 1 str:1 energy:-0.0401583 a.u.
 C  -1.300469  0.410612 -0.363737 
 C  -2.672261  0.689141 -0.219503 
 C  -0.871224 -0.893477 -0.114752 
 C  -3.591992 -0.308915  0.073652 
 C  -1.798665 -1.895857  0.212723 
 C  -3.156291 -1.617208  0.282110 
 C  -0.484234  1.511594 -0.985765 
 C   0.592803  2.255135 -0.182861 
 C   1.847015  1.454295  0.157880 
 C   1.537602  0.304757  1.133473 
 N   1.561638 -0.998835  0.475819 
 C   2.888839 -1.522580  0.117505 
 C   0.504068 -1.435310 -0.305337 
 O   0.683070 -2.390173 -1.042913 
 H  -3.031171  1.704442 -0.380642 
 H  -4.654991 -0.076592  0.114185 
 H  -1.445062 -2.919399  0.370397 
 H  -3.872712 -2.413017  0.473936 
 H  -0.037856  1.117658 -1.922446 
 H  -1.194704  2.308768 -1.320041 
 H   0.157521  2.685172  0.737460 
 H   0.906432  3.129500 -0.798841 
 H   2.319944  1.064844 -0.764845 
 H   2.604177  2.128681  0.603822 
 H   2.270024  0.292897  1.971347 
 H   0.537536  0.451463  1.605181 
 H   3.650297 -1.178416  0.831361 
 H   2.862026 -2.630268  0.144084 
 H   3.188636 -1.228912 -0.903250 
29
0 1 str:2 energy:-0.0087641 a.u.
 C  -1.280898  0.362131 -0.262064 
 C  -2.680409  0.602852 -0.268357 
 C  -0.877518 -0.955487 -0.028724 
 C  -3.626998 -0.390518 -0.097186 
 C  -1.850736 -1.957329  0.193534 
 C  -3.208576 -1.698780  0.141113 
 C  -0.572682  1.635276 -0.703979 
 C   0.767331  2.301628 -0.305495 
 C   1.976303  1.495322  0.149172 
 C   1.537838  0.333816  1.042414 
 N   1.606515 -0.944809  0.358070 
 C   2.920191 -1.507352  0.035645 
 C   0.477737 -1.591029 -0.074677 
 O   0.585509 -2.756258 -0.434184 
 H  -3.040596  1.617431 -0.447757 
 H  -4.687749 -0.153907 -0.159631 
 H  -1.518803 -2.988596  0.378834 
 H  -3.934077 -2.498694  0.265922 
 H  -0.579552  1.576270 -1.815783 
 H  -1.290599  2.464136 -0.446675 
 H   0.548464  3.053396  0.483577 
 H   1.076234  2.903777 -1.191610 
 H   2.572870  1.146752 -0.714280 
 H   2.661639  2.159469  0.717005 
 H   2.131802  0.289291  1.976371 
 H   0.486140  0.505292  1.375795 
 H   3.701974 -1.088819  0.685315 
 H   2.915005 -2.608908  0.166584 
 H   3.183640 -1.306354 -1.018945 
29
0 1 str:3 energy: 0.0558864 a.u.
 C  -1.261009  0.321495 -0.265992 
 C  -2.650070  0.559269 -0.340145 
 C  -0.857655 -1.011532  0.007462 
 C  -3.609517 -0.428912 -0.191131 
 C  -1.850850 -1.992647  0.199877 
 C  -3.206923 -1.730008  0.084251 
 C  -0.597481  1.743294 -0.446374 
 C   0.879140  2.331548 -0.433490 
 C   2.084140  1.529508  0.124873 
 C   1.476395  0.336839  0.834264 
 N   1.672568 -1.052172  0.490487 
 C   2.958060 -1.529427  0.000675 
 C   0.503610 -1.709874  0.113662 
 O   0.561636 -2.919865 -0.019164 
 H  -3.004622  1.575978 -0.522377 
 H  -4.664290 -0.181310 -0.287516 
 H  -1.547776 -3.025494  0.436496 
 H  -3.936644 -2.527549  0.198035 
 H  -0.991091  2.084903 -1.424358 
 H  -1.099967  2.345074  0.354403 
 H   0.811926  3.268940  0.164430 
 H   1.115089  2.651785 -1.459946 
 H   2.813836  1.289819 -0.657923 
 H   2.642764  2.128528  0.873317 
 H   1.446764  0.462315  1.919429 
 H   0.425631  0.473405  0.624140 
 H   3.782001 -1.074754  0.573070 
 H   3.021237 -2.630353  0.118561 
 H   3.083095 -1.288806 -1.069012 
29
0 1 str:4 energy: 0.0826130 a.u.
 C  -1.217157  0.327902 -0.100353 
 C  -2.605643  0.559212 -0.260863 
 C  -0.833100 -1.015825  0.172075 
 C  -3.578833 -0.421755 -0.166113 
 C  -1.844857 -1.994622  0.271084 
 C  -3.193890 -1.728847  0.104781 
 C  -0.573248  1.766609 -0.303429 
 C   0.894236  2.420791 -0.319458 
 C   2.123401  1.593987  0.185733 
 C   1.371289  0.307746  0.397178 
 N   1.719230 -1.083165  0.672900 
 C   2.951385 -1.563569  0.040478 
 C   0.509867 -1.768793  0.338451 
 O   0.546677 -2.974516  0.229430 
 H  -2.956418  1.572257 -0.477381 
 H  -4.629032 -0.169369 -0.303080 
 H  -1.561134 -3.039930  0.476530 
 H  -3.929908 -2.525631  0.177535 
 H  -0.961496  2.064466 -1.304658 
 H  -1.097800  2.377602  0.464041 
 H   0.825093  3.344891  0.276796 
 H   1.095165  2.726583 -1.359997 
 H   2.917163  1.521851 -0.572650 
 H   2.585255  2.017729  1.086714 
 H   0.677740  0.543801  1.267410 
 H   0.918994  0.210270 -0.656467 
 H   3.811946 -1.106140  0.557612 
 H   3.030074 -2.661213  0.135901 
 H   3.004999 -1.302325 -1.030187 
29
0 1 str:5 energy: 0.0897440 a.u.
 C  -1.270813  0.385560 -0.074575 
 C  -2.660660  0.586322 -0.226148 
 C  -0.837192 -0.958187  0.147347 
 C  -3.607211 -0.425437 -0.164584 
 C  -1.823532 -1.963506  0.199736 
 C  -3.182092 -1.728073  0.053604 
 C  -0.653051  1.852162 -0.065393 
 C   0.795415  2.470888 -0.334477 
 C   2.086371  1.677454  0.087867 
 C   1.557962  0.281185 -0.199899 
 N   1.771055 -1.028091  0.397955 
 C   3.013845 -1.763501  0.201506 
 C   0.525785 -1.688330  0.368544 
 O   0.520549 -2.884174  0.588842 
 H  -3.041418  1.599111 -0.384608 
 H  -4.665662 -0.197287 -0.276896 
 H  -1.519113 -3.009429  0.378362 
 H  -3.893534 -2.548157  0.114531 
 H  -1.260660  2.409161 -0.815797 
 H  -0.942616  2.228324  0.940253 
 H   0.805625  3.447552  0.179543 
 H   0.868873  2.676301 -1.416069 
 H   2.958836  1.983958 -0.500009 
 H   2.338522  1.828297  1.148881 
 H   0.639504  0.472212  0.444830 
 H   1.424120  0.177654 -1.299614 
 H   3.812700 -1.272250  0.785063 
 H   2.919538 -2.801645  0.577486 
 H   3.318855 -1.808077 -0.856273 
29
0 1 str:6 energy: 0.0013378 a.u.
 C  -1.284003  0.434797  0.054767 
 C  -2.670310  0.612033 -0.198421 
 C  -0.850748 -0.886572  0.267490 
 C  -3.598371 -0.413384 -0.189853 
 C  -1.810562 -1.928580  0.237700 
 C  -3.162272 -1.715500  0.037186 
 C  -0.665849  1.836872  0.175144 
 C   0.706831  2.408947 -0.264567 
 C   1.941876  1.569953  0.043067 
 C   1.676160  0.223322 -0.636576 
 N   1.704246 -0.898288  0.288122 
 C   2.934562 -1.703074  0.263292 
 C   0.493687 -1.525433  0.539340 
 O   0.537094 -2.664248  0.983359 
 H  -3.047822  1.619347 -0.388967 
 H  -4.654740 -0.203353 -0.348187 
 H  -1.480417 -2.967048  0.402327 
 H  -3.866496 -2.543597  0.062651 
 H  -1.360459  2.514598 -0.396625 
 H  -0.796883  2.100200  1.247092 
 H   0.808596  3.406643  0.212846 
 H   0.688699  2.616079 -1.356335 
 H   2.854831  2.038963 -0.371864 
 H   2.128074  1.485904  1.127727 
 H   0.653250  0.266907 -1.072232 
 H   2.323410  0.066207 -1.509671 
 H   3.701024 -1.220485  0.892617 
 H   2.765302 -2.723965  0.659555 
 H   3.331289 -1.807248 -0.760986 
29
0 1 str:7 energy:-0.0396183 a.u.
 C  -1.324029  0.500382  0.150832 
 C  -2.664965  0.691495 -0.232702 
 C  -0.869973 -0.810391  0.304593 
 C  -3.548419 -0.371633 -0.358359 
 C  -1.763053 -1.886270  0.160604 
 C  -3.100313 -1.674276 -0.142320 
 C  -0.597602  1.757345  0.549689 
 C   0.578242  2.275092 -0.289327 
 C   1.837511  1.418777 -0.185786 
 C   1.646955  0.104351 -0.967992 
 N   1.582501 -1.060997 -0.091757 
 C   2.873520 -1.617624  0.332153 
 C   0.484616 -1.279256  0.724576 
 O   0.603389 -2.025417  1.681271 
 H  -3.032023  1.702653 -0.402426 
 H  -4.594018 -0.187748 -0.599633 
 H  -1.402486 -2.906215  0.328200 
 H  -3.792912 -2.511467 -0.194145 
 H  -1.341268  2.591937  0.566853 
 H  -0.273700  1.644297  1.605820 
 H   0.815886  3.303851  0.061377 
 H   0.281413  2.391407 -1.348446 
 H   2.710217  1.973578 -0.577601 
 H   2.082401  1.217864  0.875898 
 H   0.704413  0.141764 -1.565228 
 H   2.468731 -0.035916 -1.702381 
 H   3.330770 -1.047421  1.156145 
 H   2.736145 -2.659860  0.682769 
 H   3.568050 -1.640306 -0.522680 
29
0 1 str:8 energy:-0.0501251 a.u.
 C  -1.325810  0.488146  0.384660 
 C  -2.622054  0.780419 -0.048657 
 C  -0.894101 -0.839525  0.377766 
 C  -3.465696 -0.240619 -0.478317 
 C  -1.737952 -1.865387 -0.044183 
 C  -3.026956 -1.564190 -0.476364 
 C  -0.425488  1.590747  0.849509 
 C   0.444880  2.122467 -0.301982 
 C   1.740772  1.331220 -0.505167 
 C   1.507027 -0.088946 -1.062073 
 N   1.525815 -1.117529 -0.015274 
 C   2.851237 -1.415266  0.550629 
 C   0.458501 -1.201842  0.881508 
 O   0.637036 -1.651315  1.995158 
 H  -2.974508  1.809537 -0.045222 
 H  -4.474918 -0.004365 -0.811835 
 H  -1.387498 -2.898037 -0.025356 
 H  -3.691384 -2.360578 -0.804150 
 H  -1.026048  2.423391  1.272516 
 H   0.211157  1.248689  1.693223 
 H   0.703875  3.180569 -0.094595 
 H  -0.142509  2.139050 -1.240181 
 H   2.404059  1.888582 -1.193398 
 H   2.298050  1.272151  0.450838 
 H   0.536801 -0.146354 -1.606808 
 H   2.289630 -0.342550 -1.812726 
 H   3.118683 -0.732281  1.374658 
 H   2.842280 -2.442252  0.964623 
 H   3.625118 -1.363931 -0.228804 
